<?xml version="1.0" encoding="UTF-8"?>
<configuration xmlns:xsi="http://www.w3.org/2001/XMLSchema-instance" xsi:noNamespaceSchemaLocation="http://sumo.sf.net/xsd/sumoConfiguration.xsd">
    <input>
        <net-file value="net.xml"/>
        <route-files value="rou.xml"/>
    </input>
    <output>
        <vehroute-output value="vehroutes.xml"/>
    </output>
</configuration>
